 VARIABLES = "X" "Y" "Z" "U" "U0" "Abs" "Rel"
 ZONE I=          60 J=          10 K=          10
   0.000000E+00   0.000000E+00   0.000000E+00   0.000000E+00   0.000000E+00   0.000000E+00   0.000000E+00
   5.172414E-02   0.000000E+00   0.000000E+00   2.244359E-03   2.244359E-03   0.000000E+00   0.000000E+00
   1.551724E-01   0.000000E+00   0.000000E+00   2.019923E-02   2.019923E-02   0.000000E+00   0.000000E+00
   2.586207E-01   0.000000E+00   0.000000E+00   5.610898E-02   5.610898E-02   0.000000E+00   0.000000E+00
   3.620690E-01   0.000000E+00   0.000000E+00   1.099736E-01   1.099736E-01   0.000000E+00   0.000000E+00
   4.655172E-01   0.000000E+00   0.000000E+00   1.817931E-01   1.817931E-01   0.000000E+00   0.000000E+00
   5.689655E-01   0.000000E+00   0.000000E+00   2.715675E-01   2.715675E-01   0.000000E+00   0.000000E+00
   6.724138E-01   0.000000E+00   0.000000E+00   3.792967E-01   3.792967E-01   0.000000E+00   0.000000E+00
   7.758621E-01   0.000000E+00   0.000000E+00   5.049809E-01   5.049809E-01   0.000000E+00   0.000000E+00
   8.793103E-01   0.000000E+00   0.000000E+00   6.486199E-01   6.486199E-01   0.000000E+00   0.000000E+00
   9.827586E-01   0.000000E+00   0.000000E+00   8.102137E-01   8.102137E-01   0.000000E+00   0.000000E+00
   1.086207E+00   0.000000E+00   0.000000E+00   9.897625E-01   9.897625E-01   0.000000E+00   0.000000E+00
   1.189655E+00   0.000000E+00   0.000000E+00   1.187266E+00   1.187266E+00   0.000000E+00   0.000000E+00
   1.293103E+00   0.000000E+00   0.000000E+00   1.402725E+00   1.402725E+00   0.000000E+00   0.000000E+00
   1.396552E+00   0.000000E+00   0.000000E+00   1.636138E+00   1.636138E+00   0.000000E+00   0.000000E+00
   1.500000E+00   0.000000E+00   0.000000E+00   1.887506E+00   1.887506E+00   0.000000E+00   0.000000E+00
   1.603448E+00   0.000000E+00   0.000000E+00   2.156829E+00   2.156829E+00   0.000000E+00   0.000000E+00
   1.706897E+00   0.000000E+00   0.000000E+00   2.444107E+00   2.444107E+00   0.000000E+00   0.000000E+00
   1.810345E+00   0.000000E+00   0.000000E+00   2.749340E+00   2.749340E+00   0.000000E+00   0.000000E+00
   1.913793E+00   0.000000E+00   0.000000E+00   3.072528E+00   3.072528E+00   0.000000E+00   0.000000E+00
   2.017241E+00   0.000000E+00   0.000000E+00   3.413671E+00   3.413671E+00   0.000000E+00   0.000000E+00
   2.120690E+00   0.000000E+00   0.000000E+00   3.772768E+00   3.772768E+00   0.000000E+00   0.000000E+00
   2.224138E+00   0.000000E+00   0.000000E+00   4.149821E+00   4.149821E+00   0.000000E+00   0.000000E+00
   2.327586E+00   0.000000E+00   0.000000E+00   4.544828E+00   4.544828E+00   0.000000E+00   0.000000E+00
   2.431034E+00   0.000000E+00   0.000000E+00   4.957790E+00   4.957790E+00   0.000000E+00   0.000000E+00
   2.534483E+00   0.000000E+00   0.000000E+00   5.388707E+00   5.388707E+00   0.000000E+00   0.000000E+00
   2.637931E+00   0.000000E+00   0.000000E+00   5.837579E+00   5.837579E+00   0.000000E+00   0.000000E+00
   2.741379E+00   0.000000E+00   0.000000E+00   6.304406E+00   6.304406E+00   0.000000E+00   0.000000E+00
   2.844828E+00   0.000000E+00   0.000000E+00   6.789187E+00   6.789187E+00   0.000000E+00   0.000000E+00
   2.948276E+00   0.000000E+00   0.000000E+00   7.291924E+00   7.291924E+00   0.000000E+00   0.000000E+00
   3.051724E+00   0.000000E+00   0.000000E+00   7.812615E+00   7.812615E+00   0.000000E+00   0.000000E+00
   3.155172E+00   0.000000E+00   0.000000E+00   8.351261E+00   8.351261E+00   0.000000E+00   0.000000E+00
   3.258621E+00   0.000000E+00   0.000000E+00   8.907862E+00   8.907862E+00   0.000000E+00   0.000000E+00
   3.362069E+00   0.000000E+00   0.000000E+00   9.482418E+00   9.482418E+00   0.000000E+00   0.000000E+00
   3.465517E+00   0.000000E+00   0.000000E+00   1.007493E+01   1.007493E+01   0.000000E+00   0.000000E+00
   3.568966E+00   0.000000E+00   0.000000E+00   1.068540E+01   1.068540E+01   0.000000E+00   0.000000E+00
   3.672414E+00   0.000000E+00   0.000000E+00   1.131382E+01   1.131382E+01   0.000000E+00   0.000000E+00
   3.775862E+00   0.000000E+00   0.000000E+00   1.196019E+01   1.196019E+01   0.000000E+00   0.000000E+00
   3.879310E+00   0.000000E+00   0.000000E+00   1.262452E+01   1.262452E+01   0.000000E+00   0.000000E+00
   3.982759E+00   0.000000E+00   0.000000E+00   1.330681E+01   1.330681E+01   0.000000E+00   0.000000E+00
   4.086207E+00   0.000000E+00   0.000000E+00   1.400705E+01   1.400705E+01   0.000000E+00   0.000000E+00
   4.189655E+00   0.000000E+00   0.000000E+00   1.472524E+01   1.472524E+01   0.000000E+00   0.000000E+00
   4.293103E+00   0.000000E+00   0.000000E+00   1.546139E+01   1.546139E+01   0.000000E+00   0.000000E+00
   4.396552E+00   0.000000E+00   0.000000E+00   1.621550E+01   1.621550E+01   0.000000E+00   0.000000E+00
   4.500000E+00   0.000000E+00   0.000000E+00   1.698756E+01   1.698756E+01   0.000000E+00   0.000000E+00
   4.603448E+00   0.000000E+00   0.000000E+00   1.777757E+01   1.777757E+01   0.000000E+00   0.000000E+00
   4.706897E+00   0.000000E+00   0.000000E+00   1.858554E+01   1.858554E+01   0.000000E+00   0.000000E+00
   4.810345E+00   0.000000E+00   0.000000E+00   1.941146E+01   1.941146E+01   0.000000E+00   0.000000E+00
   4.913793E+00   0.000000E+00   0.000000E+00   2.025534E+01   2.025534E+01   0.000000E+00   0.000000E+00
   5.017241E+00   0.000000E+00   0.000000E+00   2.111718E+01   2.111718E+01   0.000000E+00   0.000000E+00
   5.120690E+00   0.000000E+00   0.000000E+00   2.199697E+01   2.199697E+01   0.000000E+00   0.000000E+00
   5.224138E+00   0.000000E+00   0.000000E+00   2.289471E+01   2.289471E+01   0.000000E+00   0.000000E+00
   5.327586E+00   0.000000E+00   0.000000E+00   2.381041E+01   2.381041E+01   0.000000E+00   0.000000E+00
   5.431034E+00   0.000000E+00   0.000000E+00   2.474406E+01   2.474406E+01   0.000000E+00   0.000000E+00
   5.534483E+00   0.000000E+00   0.000000E+00   2.569567E+01   2.569567E+01   0.000000E+00   0.000000E+00
   5.637931E+00   0.000000E+00   0.000000E+00   2.666523E+01   2.666523E+01   0.000000E+00   0.000000E+00
   5.741379E+00   0.000000E+00   0.000000E+00   2.765275E+01   2.765275E+01   0.000000E+00   0.000000E+00
   5.844828E+00   0.000000E+00   0.000000E+00   2.865823E+01   2.865823E+01   0.000000E+00   0.000000E+00
   5.948276E+00   0.000000E+00   0.000000E+00   2.968165E+01   2.968165E+01   0.000000E+00   0.000000E+00
   6.000000E+00   0.000000E+00   0.000000E+00   3.020010E+01   3.020010E+01   0.000000E+00   0.000000E+00
   0.000000E+00   6.250000E-02   0.000000E+00  -5.243073E-02  -5.243073E-02   0.000000E+00   0.000000E+00
   5.172414E-02   6.250000E-02   0.000000E+00  -5.018637E-02  -5.018637E-02   0.000000E+00   0.000000E+00
   1.551724E-01   6.250000E-02   0.000000E+00  -3.223149E-02  -3.223149E-02   0.000000E+00   0.000000E+00
   2.586207E-01   6.250000E-02   0.000000E+00   3.678256E-03   3.678256E-03   0.000000E+00   0.000000E+00
   3.620690E-01   6.250000E-02   0.000000E+00   5.754288E-02   5.754288E-02   0.000000E+00   0.000000E+00
   4.655172E-01   6.250000E-02   0.000000E+00   1.293624E-01   1.293624E-01   0.000000E+00   0.000000E+00
   5.689655E-01   6.250000E-02   0.000000E+00   2.191368E-01   2.191368E-01   0.000000E+00   0.000000E+00
   6.724138E-01   6.250000E-02   0.000000E+00   3.268660E-01   3.268660E-01   0.000000E+00   0.000000E+00
   7.758621E-01   6.250000E-02   0.000000E+00   4.525501E-01   4.525501E-01   0.000000E+00   0.000000E+00
   8.793103E-01   6.250000E-02   0.000000E+00   5.961891E-01   5.961891E-01   0.000000E+00   0.000000E+00
   9.827586E-01   6.250000E-02   0.000000E+00   7.577830E-01   7.577830E-01   0.000000E+00   0.000000E+00
   1.086207E+00   6.250000E-02   0.000000E+00   9.373318E-01   9.373318E-01   0.000000E+00   0.000000E+00
   1.189655E+00   6.250000E-02   0.000000E+00   1.134835E+00   1.134835E+00   0.000000E+00   0.000000E+00
   1.293103E+00   6.250000E-02   0.000000E+00   1.350294E+00   1.350294E+00   0.000000E+00   0.000000E+00
   1.396552E+00   6.250000E-02   0.000000E+00   1.583707E+00   1.583707E+00   0.000000E+00   0.000000E+00
   1.500000E+00   6.250000E-02   0.000000E+00   1.835076E+00   1.835076E+00   0.000000E+00   0.000000E+00
   1.603448E+00   6.250000E-02   0.000000E+00   2.104399E+00   2.104399E+00   0.000000E+00   0.000000E+00
   1.706897E+00   6.250000E-02   0.000000E+00   2.391677E+00   2.391677E+00   0.000000E+00   0.000000E+00
   1.810345E+00   6.250000E-02   0.000000E+00   2.696910E+00   2.696910E+00   0.000000E+00   0.000000E+00
   1.913793E+00   6.250000E-02   0.000000E+00   3.020097E+00   3.020097E+00   0.000000E+00   0.000000E+00
   2.017241E+00   6.250000E-02   0.000000E+00   3.361240E+00   3.361240E+00   0.000000E+00   0.000000E+00
   2.120690E+00   6.250000E-02   0.000000E+00   3.720337E+00   3.720337E+00   0.000000E+00   0.000000E+00
   2.224138E+00   6.250000E-02   0.000000E+00   4.097390E+00   4.097390E+00   0.000000E+00   0.000000E+00
   2.327586E+00   6.250000E-02   0.000000E+00   4.492397E+00   4.492397E+00   0.000000E+00   0.000000E+00
   2.431034E+00   6.250000E-02   0.000000E+00   4.905359E+00   4.905359E+00   0.000000E+00   0.000000E+00
   2.534483E+00   6.250000E-02   0.000000E+00   5.336276E+00   5.336276E+00   0.000000E+00   0.000000E+00
   2.637931E+00   6.250000E-02   0.000000E+00   5.785148E+00   5.785148E+00   0.000000E+00   0.000000E+00
   2.741379E+00   6.250000E-02   0.000000E+00   6.251975E+00   6.251975E+00   0.000000E+00   0.000000E+00
   2.844828E+00   6.250000E-02   0.000000E+00   6.736756E+00   6.736756E+00   0.000000E+00   0.000000E+00
   2.948276E+00   6.250000E-02   0.000000E+00   7.239493E+00   7.239493E+00   0.000000E+00   0.000000E+00
   3.051724E+00   6.250000E-02   0.000000E+00   7.760184E+00   7.760184E+00   0.000000E+00   0.000000E+00
   3.155172E+00   6.250000E-02   0.000000E+00   8.298831E+00   8.298831E+00   0.000000E+00   0.000000E+00
   3.258621E+00   6.250000E-02   0.000000E+00   8.855432E+00   8.855432E+00   0.000000E+00   0.000000E+00
   3.362069E+00   6.250000E-02   0.000000E+00   9.429988E+00   9.429988E+00   0.000000E+00   0.000000E+00
   3.465517E+00   6.250000E-02   0.000000E+00   1.002250E+01   1.002250E+01   0.000000E+00   0.000000E+00
   3.568966E+00   6.250000E-02   0.000000E+00   1.063296E+01   1.063296E+01   0.000000E+00   0.000000E+00
   3.672414E+00   6.250000E-02   0.000000E+00   1.126138E+01   1.126138E+01   0.000000E+00   0.000000E+00
   3.775862E+00   6.250000E-02   0.000000E+00   1.190776E+01   1.190776E+01   0.000000E+00   0.000000E+00
   3.879310E+00   6.250000E-02   0.000000E+00   1.257209E+01   1.257209E+01   0.000000E+00   0.000000E+00
   3.982759E+00   6.250000E-02   0.000000E+00   1.325438E+01   1.325438E+01   0.000000E+00   0.000000E+00
   4.086207E+00   6.250000E-02   0.000000E+00   1.395462E+01   1.395462E+01   0.000000E+00   0.000000E+00
   4.189655E+00   6.250000E-02   0.000000E+00   1.467281E+01   1.467281E+01   0.000000E+00   0.000000E+00
   4.293103E+00   6.250000E-02   0.000000E+00   1.540896E+01   1.540896E+01   0.000000E+00   0.000000E+00
   4.396552E+00   6.250000E-02   0.000000E+00   1.616307E+01   1.616307E+01   0.000000E+00   0.000000E+00
   4.500000E+00   6.250000E-02   0.000000E+00   1.693513E+01   1.693513E+01   0.000000E+00   0.000000E+00
   4.603448E+00   6.250000E-02   0.000000E+00   1.772514E+01   1.772514E+01   0.000000E+00   0.000000E+00
   4.706897E+00   6.250000E-02   0.000000E+00   1.853311E+01   1.853311E+01   0.000000E+00   0.000000E+00
   4.810345E+00   6.250000E-02   0.000000E+00   1.935903E+01   1.935903E+01   0.000000E+00   0.000000E+00
   4.913793E+00   6.250000E-02   0.000000E+00   2.020291E+01   2.020291E+01   0.000000E+00   0.000000E+00
   5.017241E+00   6.250000E-02   0.000000E+00   2.106475E+01   2.106475E+01   0.000000E+00   0.000000E+00
   5.120690E+00   6.250000E-02   0.000000E+00   2.194454E+01   2.194454E+01   0.000000E+00   0.000000E+00
   5.224138E+00   6.250000E-02   0.000000E+00   2.284228E+01   2.284228E+01   0.000000E+00   0.000000E+00
   5.327586E+00   6.250000E-02   0.000000E+00   2.375798E+01   2.375798E+01   0.000000E+00   0.000000E+00
   5.431034E+00   6.250000E-02   0.000000E+00   2.469163E+01   2.469163E+01   0.000000E+00   0.000000E+00
   5.534483E+00   6.250000E-02   0.000000E+00   2.564324E+01   2.564324E+01   0.000000E+00   0.000000E+00
   5.637931E+00   6.250000E-02   0.000000E+00   2.661280E+01   2.661280E+01   0.000000E+00   0.000000E+00
   5.741379E+00   6.250000E-02   0.000000E+00   2.760032E+01   2.760032E+01   0.000000E+00   0.000000E+00
   5.844828E+00   6.250000E-02   0.000000E+00   2.860579E+01   2.860579E+01   0.000000E+00   0.000000E+00
   5.948276E+00   6.250000E-02   0.000000E+00   2.962922E+01   2.962922E+01   0.000000E+00   0.000000E+00
   6.000000E+00   6.250000E-02   0.000000E+00   3.014767E+01   3.014767E+01   0.000000E+00   0.000000E+00
   0.000000E+00   1.875000E-01   0.000000E+00  -1.572922E-01  -1.572922E-01   0.000000E+00   0.000000E+00
   5.172414E-02   1.875000E-01   0.000000E+00  -1.550478E-01  -1.550478E-01   0.000000E+00   0.000000E+00
   1.551724E-01   1.875000E-01   0.000000E+00  -1.370930E-01  -1.370930E-01   0.000000E+00   0.000000E+00
   2.586207E-01   1.875000E-01   0.000000E+00  -1.011832E-01  -1.011832E-01   0.000000E+00   0.000000E+00
   3.620690E-01   1.875000E-01   0.000000E+00  -4.731858E-02  -4.731858E-02   0.000000E+00   0.000000E+00
   4.655172E-01   1.875000E-01   0.000000E+00   2.450092E-02   2.450092E-02   0.000000E+00   0.000000E+00
   5.689655E-01   1.875000E-01   0.000000E+00   1.142753E-01   1.142753E-01   0.000000E+00   0.000000E+00
   6.724138E-01   1.875000E-01   0.000000E+00   2.220046E-01   2.220046E-01   0.000000E+00   0.000000E+00
   7.758621E-01   1.875000E-01   0.000000E+00   3.476887E-01   3.476887E-01   0.000000E+00   0.000000E+00
   8.793103E-01   1.875000E-01   0.000000E+00   4.913277E-01   4.913277E-01   0.000000E+00   0.000000E+00
   9.827586E-01   1.875000E-01   0.000000E+00   6.529216E-01   6.529216E-01   0.000000E+00   0.000000E+00
   1.086207E+00   1.875000E-01   0.000000E+00   8.324703E-01   8.324703E-01   0.000000E+00   0.000000E+00
   1.189655E+00   1.875000E-01   0.000000E+00   1.029974E+00   1.029974E+00   0.000000E+00   0.000000E+00
   1.293103E+00   1.875000E-01   0.000000E+00   1.245432E+00   1.245432E+00   0.000000E+00   0.000000E+00
   1.396552E+00   1.875000E-01   0.000000E+00   1.478846E+00   1.478846E+00   0.000000E+00   0.000000E+00
   1.500000E+00   1.875000E-01   0.000000E+00   1.730214E+00   1.730214E+00   0.000000E+00   0.000000E+00
   1.603448E+00   1.875000E-01   0.000000E+00   1.999537E+00   1.999537E+00   0.000000E+00   0.000000E+00
   1.706897E+00   1.875000E-01   0.000000E+00   2.286815E+00   2.286815E+00   0.000000E+00   0.000000E+00
   1.810345E+00   1.875000E-01   0.000000E+00   2.592048E+00   2.592048E+00   0.000000E+00   0.000000E+00
   1.913793E+00   1.875000E-01   0.000000E+00   2.915236E+00   2.915236E+00   0.000000E+00   0.000000E+00
   2.017241E+00   1.875000E-01   0.000000E+00   3.256378E+00   3.256378E+00   0.000000E+00   0.000000E+00
   2.120690E+00   1.875000E-01   0.000000E+00   3.615476E+00   3.615476E+00   0.000000E+00   0.000000E+00
   2.224138E+00   1.875000E-01   0.000000E+00   3.992528E+00   3.992528E+00   0.000000E+00   0.000000E+00
   2.327586E+00   1.875000E-01   0.000000E+00   4.387536E+00   4.387536E+00   0.000000E+00   0.000000E+00
   2.431034E+00   1.875000E-01   0.000000E+00   4.800498E+00   4.800498E+00   0.000000E+00   0.000000E+00
   2.534483E+00   1.875000E-01   0.000000E+00   5.231415E+00   5.231415E+00   0.000000E+00   0.000000E+00
   2.637931E+00   1.875000E-01   0.000000E+00   5.680287E+00   5.680287E+00   0.000000E+00   0.000000E+00
   2.741379E+00   1.875000E-01   0.000000E+00   6.147113E+00   6.147113E+00   0.000000E+00   0.000000E+00
   2.844828E+00   1.875000E-01   0.000000E+00   6.631895E+00   6.631895E+00   0.000000E+00   0.000000E+00
   2.948276E+00   1.875000E-01   0.000000E+00   7.134631E+00   7.134631E+00   0.000000E+00   0.000000E+00
   3.051724E+00   1.875000E-01   0.000000E+00   7.655323E+00   7.655323E+00   0.000000E+00   0.000000E+00
   3.155172E+00   1.875000E-01   0.000000E+00   8.193969E+00   8.193969E+00   0.000000E+00   0.000000E+00
   3.258621E+00   1.875000E-01   0.000000E+00   8.750570E+00   8.750570E+00   0.000000E+00   0.000000E+00
   3.362069E+00   1.875000E-01   0.000000E+00   9.325126E+00   9.325126E+00   0.000000E+00   0.000000E+00
   3.465517E+00   1.875000E-01   0.000000E+00   9.917637E+00   9.917637E+00   0.000000E+00   0.000000E+00
   3.568966E+00   1.875000E-01   0.000000E+00   1.052810E+01   1.052810E+01   0.000000E+00   0.000000E+00
   3.672414E+00   1.875000E-01   0.000000E+00   1.115652E+01   1.115652E+01   0.000000E+00   0.000000E+00
   3.775862E+00   1.875000E-01   0.000000E+00   1.180290E+01   1.180290E+01   0.000000E+00   0.000000E+00
   3.879310E+00   1.875000E-01   0.000000E+00   1.246723E+01   1.246723E+01   0.000000E+00   0.000000E+00
   3.982759E+00   1.875000E-01   0.000000E+00   1.314951E+01   1.314951E+01   0.000000E+00   0.000000E+00
   4.086207E+00   1.875000E-01   0.000000E+00   1.384975E+01   1.384975E+01   0.000000E+00   0.000000E+00
   4.189655E+00   1.875000E-01   0.000000E+00   1.456795E+01   1.456795E+01   0.000000E+00   0.000000E+00
   4.293103E+00   1.875000E-01   0.000000E+00   1.530410E+01   1.530410E+01   0.000000E+00   0.000000E+00
   4.396552E+00   1.875000E-01   0.000000E+00   1.605820E+01   1.605820E+01   0.000000E+00   0.000000E+00
   4.500000E+00   1.875000E-01   0.000000E+00   1.683026E+01   1.683026E+01   0.000000E+00   0.000000E+00
   4.603448E+00   1.875000E-01   0.000000E+00   1.762028E+01   1.762028E+01   0.000000E+00   0.000000E+00
   4.706897E+00   1.875000E-01   0.000000E+00   1.842825E+01   1.842825E+01   0.000000E+00   0.000000E+00
   4.810345E+00   1.875000E-01   0.000000E+00   1.925417E+01   1.925417E+01   0.000000E+00   0.000000E+00
   4.913793E+00   1.875000E-01   0.000000E+00   2.009805E+01   2.009805E+01   0.000000E+00   0.000000E+00
   5.017241E+00   1.875000E-01   0.000000E+00   2.095989E+01   2.095989E+01   0.000000E+00   0.000000E+00
   5.120690E+00   1.875000E-01   0.000000E+00   2.183967E+01   2.183967E+01   0.000000E+00   0.000000E+00
   5.224138E+00   1.875000E-01   0.000000E+00   2.273742E+01   2.273742E+01   0.000000E+00   0.000000E+00
   5.327586E+00   1.875000E-01   0.000000E+00   2.365312E+01   2.365312E+01   0.000000E+00   0.000000E+00
   5.431034E+00   1.875000E-01   0.000000E+00   2.458677E+01   2.458677E+01   0.000000E+00   0.000000E+00
   5.534483E+00   1.875000E-01   0.000000E+00   2.553838E+01   2.553838E+01   0.000000E+00   0.000000E+00
   5.637931E+00   1.875000E-01   0.000000E+00   2.650794E+01   2.650794E+01   0.000000E+00   0.000000E+00
   5.741379E+00   1.875000E-01   0.000000E+00   2.749546E+01   2.749546E+01   0.000000E+00   0.000000E+00
   5.844828E+00   1.875000E-01   0.000000E+00   2.850093E+01   2.850093E+01   0.000000E+00   0.000000E+00
   5.948276E+00   1.875000E-01   0.000000E+00   2.952436E+01   2.952436E+01   0.000000E+00   0.000000E+00
   6.000000E+00   1.875000E-01   0.000000E+00   3.004281E+01   3.004281E+01   0.000000E+00   0.000000E+00
   0.000000E+00   3.125000E-01   0.000000E+00  -2.621536E-01  -2.621536E-01   0.000000E+00   0.000000E+00
   5.172414E-02   3.125000E-01   0.000000E+00  -2.599093E-01  -2.599093E-01   0.000000E+00   0.000000E+00
   1.551724E-01   3.125000E-01   0.000000E+00  -2.419544E-01  -2.419544E-01   0.000000E+00   0.000000E+00
   2.586207E-01   3.125000E-01   0.000000E+00  -2.060447E-01  -2.060447E-01   0.000000E+00   0.000000E+00
   3.620690E-01   3.125000E-01   0.000000E+00  -1.521800E-01  -1.521800E-01   0.000000E+00   0.000000E+00
   4.655172E-01   3.125000E-01   0.000000E+00  -8.036054E-02  -8.036054E-02   0.000000E+00   0.000000E+00
   5.689655E-01   3.125000E-01   0.000000E+00   9.413841E-03   9.413841E-03   0.000000E+00   0.000000E+00
   6.724138E-01   3.125000E-01   0.000000E+00   1.171431E-01   1.171431E-01   0.000000E+00   0.000000E+00
   7.758621E-01   3.125000E-01   0.000000E+00   2.428272E-01   2.428272E-01   0.000000E+00   0.000000E+00
   8.793103E-01   3.125000E-01   0.000000E+00   3.864662E-01   3.864662E-01   0.000000E+00   0.000000E+00
   9.827586E-01   3.125000E-01   0.000000E+00   5.480601E-01   5.480601E-01   0.000000E+00   0.000000E+00
   1.086207E+00   3.125000E-01   0.000000E+00   7.276088E-01   7.276088E-01   0.000000E+00   0.000000E+00
   1.189655E+00   3.125000E-01   0.000000E+00   9.251125E-01   9.251125E-01   0.000000E+00   0.000000E+00
   1.293103E+00   3.125000E-01   0.000000E+00   1.140571E+00   1.140571E+00   0.000000E+00   0.000000E+00
   1.396552E+00   3.125000E-01   0.000000E+00   1.373984E+00   1.373984E+00   0.000000E+00   0.000000E+00
   1.500000E+00   3.125000E-01   0.000000E+00   1.625353E+00   1.625353E+00   0.000000E+00   0.000000E+00
   1.603448E+00   3.125000E-01   0.000000E+00   1.894676E+00   1.894676E+00   0.000000E+00   0.000000E+00
   1.706897E+00   3.125000E-01   0.000000E+00   2.181954E+00   2.181954E+00   0.000000E+00   0.000000E+00
   1.810345E+00   3.125000E-01   0.000000E+00   2.487187E+00   2.487187E+00   0.000000E+00   0.000000E+00
   1.913793E+00   3.125000E-01   0.000000E+00   2.810374E+00   2.810374E+00   0.000000E+00   0.000000E+00
   2.017241E+00   3.125000E-01   0.000000E+00   3.151517E+00   3.151517E+00   0.000000E+00   0.000000E+00
   2.120690E+00   3.125000E-01   0.000000E+00   3.510614E+00   3.510614E+00   0.000000E+00   0.000000E+00
   2.224138E+00   3.125000E-01   0.000000E+00   3.887667E+00   3.887667E+00   0.000000E+00   0.000000E+00
   2.327586E+00   3.125000E-01   0.000000E+00   4.282674E+00   4.282674E+00   0.000000E+00   0.000000E+00
   2.431034E+00   3.125000E-01   0.000000E+00   4.695636E+00   4.695636E+00   0.000000E+00   0.000000E+00
   2.534483E+00   3.125000E-01   0.000000E+00   5.126553E+00   5.126553E+00   0.000000E+00   0.000000E+00
   2.637931E+00   3.125000E-01   0.000000E+00   5.575425E+00   5.575425E+00   0.000000E+00   0.000000E+00
   2.741379E+00   3.125000E-01   0.000000E+00   6.042252E+00   6.042252E+00   0.000000E+00   0.000000E+00
   2.844828E+00   3.125000E-01   0.000000E+00   6.527034E+00   6.527034E+00   0.000000E+00   0.000000E+00
   2.948276E+00   3.125000E-01   0.000000E+00   7.029770E+00   7.029770E+00   0.000000E+00   0.000000E+00
   3.051724E+00   3.125000E-01   0.000000E+00   7.550461E+00   7.550461E+00   0.000000E+00   0.000000E+00
   3.155172E+00   3.125000E-01   0.000000E+00   8.089108E+00   8.089108E+00   0.000000E+00   0.000000E+00
   3.258621E+00   3.125000E-01   0.000000E+00   8.645709E+00   8.645709E+00   0.000000E+00   0.000000E+00
   3.362069E+00   3.125000E-01   0.000000E+00   9.220265E+00   9.220265E+00   0.000000E+00   0.000000E+00
   3.465517E+00   3.125000E-01   0.000000E+00   9.812776E+00   9.812776E+00   0.000000E+00   0.000000E+00
   3.568966E+00   3.125000E-01   0.000000E+00   1.042324E+01   1.042324E+01   0.000000E+00   0.000000E+00
   3.672414E+00   3.125000E-01   0.000000E+00   1.105166E+01   1.105166E+01   0.000000E+00   0.000000E+00
   3.775862E+00   3.125000E-01   0.000000E+00   1.169804E+01   1.169804E+01   0.000000E+00   0.000000E+00
   3.879310E+00   3.125000E-01   0.000000E+00   1.236237E+01   1.236237E+01   0.000000E+00   0.000000E+00
   3.982759E+00   3.125000E-01   0.000000E+00   1.304465E+01   1.304465E+01   0.000000E+00   0.000000E+00
   4.086207E+00   3.125000E-01   0.000000E+00   1.374489E+01   1.374489E+01   0.000000E+00   0.000000E+00
   4.189655E+00   3.125000E-01   0.000000E+00   1.446309E+01   1.446309E+01   0.000000E+00   0.000000E+00
   4.293103E+00   3.125000E-01   0.000000E+00   1.519924E+01   1.519924E+01   0.000000E+00   0.000000E+00
   4.396552E+00   3.125000E-01   0.000000E+00   1.595334E+01   1.595334E+01   0.000000E+00   0.000000E+00
   4.500000E+00   3.125000E-01   0.000000E+00   1.672540E+01   1.672540E+01   0.000000E+00   0.000000E+00
   4.603448E+00   3.125000E-01   0.000000E+00   1.751542E+01   1.751542E+01   0.000000E+00   0.000000E+00
   4.706897E+00   3.125000E-01   0.000000E+00   1.832339E+01   1.832339E+01   0.000000E+00   0.000000E+00
   4.810345E+00   3.125000E-01   0.000000E+00   1.914931E+01   1.914931E+01   0.000000E+00   0.000000E+00
   4.913793E+00   3.125000E-01   0.000000E+00   1.999319E+01   1.999319E+01   0.000000E+00   0.000000E+00
   5.017241E+00   3.125000E-01   0.000000E+00   2.085502E+01   2.085502E+01   0.000000E+00   0.000000E+00
   5.120690E+00   3.125000E-01   0.000000E+00   2.173481E+01   2.173481E+01   0.000000E+00   0.000000E+00
   5.224138E+00   3.125000E-01   0.000000E+00   2.263256E+01   2.263256E+01   0.000000E+00   0.000000E+00
   5.327586E+00   3.125000E-01   0.000000E+00   2.354826E+01   2.354826E+01   0.000000E+00   0.000000E+00
   5.431034E+00   3.125000E-01   0.000000E+00   2.448191E+01   2.448191E+01   0.000000E+00   0.000000E+00
   5.534483E+00   3.125000E-01   0.000000E+00   2.543352E+01   2.543352E+01   0.000000E+00   0.000000E+00
   5.637931E+00   3.125000E-01   0.000000E+00   2.640308E+01   2.640308E+01   0.000000E+00   0.000000E+00
   5.741379E+00   3.125000E-01   0.000000E+00   2.739060E+01   2.739060E+01   0.000000E+00   0.000000E+00
   5.844828E+00   3.125000E-01   0.000000E+00   2.839607E+01   2.839607E+01   0.000000E+00   0.000000E+00
   5.948276E+00   3.125000E-01   0.000000E+00   2.941950E+01   2.941950E+01   0.000000E+00   0.000000E+00
   6.000000E+00   3.125000E-01   0.000000E+00   2.993795E+01   2.993795E+01   0.000000E+00   0.000000E+00
   0.000000E+00   4.375000E-01   0.000000E+00  -3.670151E-01  -3.670151E-01   0.000000E+00   0.000000E+00
   5.172414E-02   4.375000E-01   0.000000E+00  -3.647707E-01  -3.647707E-01   0.000000E+00   0.000000E+00
   1.551724E-01   4.375000E-01   0.000000E+00  -3.468159E-01  -3.468159E-01   0.000000E+00   0.000000E+00
   2.586207E-01   4.375000E-01   0.000000E+00  -3.109061E-01  -3.109061E-01   0.000000E+00   0.000000E+00
   3.620690E-01   4.375000E-01   0.000000E+00  -2.570415E-01  -2.570415E-01   0.000000E+00   0.000000E+00
   4.655172E-01   4.375000E-01   0.000000E+00  -1.852220E-01  -1.852220E-01   0.000000E+00   0.000000E+00
   5.689655E-01   4.375000E-01   0.000000E+00  -9.544762E-02  -9.544762E-02   0.000000E+00   0.000000E+00
   6.724138E-01   4.375000E-01   0.000000E+00   1.228163E-02   1.228163E-02   0.000000E+00   0.000000E+00
   7.758621E-01   4.375000E-01   0.000000E+00   1.379658E-01   1.379658E-01   0.000000E+00   0.000000E+00
   8.793103E-01   4.375000E-01   0.000000E+00   2.816048E-01   2.816048E-01   0.000000E+00   0.000000E+00
   9.827586E-01   4.375000E-01   0.000000E+00   4.431986E-01   4.431986E-01   0.000000E+00   0.000000E+00
   1.086207E+00   4.375000E-01   0.000000E+00   6.227474E-01   6.227474E-01   0.000000E+00   0.000000E+00
   1.189655E+00   4.375000E-01   0.000000E+00   8.202510E-01   8.202510E-01   0.000000E+00   0.000000E+00
   1.293103E+00   4.375000E-01   0.000000E+00   1.035710E+00   1.035710E+00   0.000000E+00   0.000000E+00
   1.396552E+00   4.375000E-01   0.000000E+00   1.269123E+00   1.269123E+00   0.000000E+00   0.000000E+00
   1.500000E+00   4.375000E-01   0.000000E+00   1.520491E+00   1.520491E+00   0.000000E+00   0.000000E+00
   1.603448E+00   4.375000E-01   0.000000E+00   1.789814E+00   1.789814E+00   0.000000E+00   0.000000E+00
   1.706897E+00   4.375000E-01   0.000000E+00   2.077092E+00   2.077092E+00   0.000000E+00   0.000000E+00
   1.810345E+00   4.375000E-01   0.000000E+00   2.382325E+00   2.382325E+00   0.000000E+00   0.000000E+00
   1.913793E+00   4.375000E-01   0.000000E+00   2.705513E+00   2.705513E+00   0.000000E+00   0.000000E+00
   2.017241E+00   4.375000E-01   0.000000E+00   3.046656E+00   3.046656E+00   0.000000E+00   0.000000E+00
   2.120690E+00   4.375000E-01   0.000000E+00   3.405753E+00   3.405753E+00   0.000000E+00   0.000000E+00
   2.224138E+00   4.375000E-01   0.000000E+00   3.782805E+00   3.782805E+00   0.000000E+00   0.000000E+00
   2.327586E+00   4.375000E-01   0.000000E+00   4.177813E+00   4.177813E+00   0.000000E+00   0.000000E+00
   2.431034E+00   4.375000E-01   0.000000E+00   4.590775E+00   4.590775E+00   0.000000E+00   0.000000E+00
   2.534483E+00   4.375000E-01   0.000000E+00   5.021692E+00   5.021692E+00   0.000000E+00   0.000000E+00
   2.637931E+00   4.375000E-01   0.000000E+00   5.470564E+00   5.470564E+00   0.000000E+00   0.000000E+00
   2.741379E+00   4.375000E-01   0.000000E+00   5.937390E+00   5.937390E+00   0.000000E+00   0.000000E+00
   2.844828E+00   4.375000E-01   0.000000E+00   6.422172E+00   6.422172E+00   0.000000E+00   0.000000E+00
   2.948276E+00   4.375000E-01   0.000000E+00   6.924909E+00   6.924909E+00   0.000000E+00   0.000000E+00
   3.051724E+00   4.375000E-01   0.000000E+00   7.445600E+00   7.445600E+00   0.000000E+00   0.000000E+00
   3.155172E+00   4.375000E-01   0.000000E+00   7.984246E+00   7.984246E+00   0.000000E+00   0.000000E+00
   3.258621E+00   4.375000E-01   0.000000E+00   8.540847E+00   8.540847E+00   0.000000E+00   0.000000E+00
   3.362069E+00   4.375000E-01   0.000000E+00   9.115403E+00   9.115403E+00   0.000000E+00   0.000000E+00
   3.465517E+00   4.375000E-01   0.000000E+00   9.707914E+00   9.707914E+00   0.000000E+00   0.000000E+00
   3.568966E+00   4.375000E-01   0.000000E+00   1.031838E+01   1.031838E+01   0.000000E+00   0.000000E+00
   3.672414E+00   4.375000E-01   0.000000E+00   1.094680E+01   1.094680E+01   0.000000E+00   0.000000E+00
   3.775862E+00   4.375000E-01   0.000000E+00   1.159318E+01   1.159318E+01   0.000000E+00   0.000000E+00
   3.879310E+00   4.375000E-01   0.000000E+00   1.225751E+01   1.225751E+01   0.000000E+00   0.000000E+00